
FAST Summary File

Predictions were generated on 24-Jul-2020 at 19:16:05 using OpenFAST, compiled as a 64-bit application using double precision at commit v2.3.0-29-gced487c8
  compiled with
    NWTC Subroutine Library
    ElastoDyn
    BeamDyn [not called]
    InflowWind
    AeroDyn14 [not called]
    AeroDyn
    ServoDyn
    HydroDyn [not called]
    SubDyn [not called]
    ExtPtfm_MCKF [not called]
    MAP [not called]
    FEAMooring [not called]
    MoorDyn [not called]
    OrcaFlexInterface [not called]
    IceFloe [not called]
    IceDyn [not called]


Modeling a land-based turbine
Description from the FAST input file: 
  Generated with AeroElasticSE FAST driver

Interpolation order for input/output time histories: 2 (quadratic)
Number of correction iterations:  0


   Requested Time Steps  
  -------------------------------------------------
  Component          Time Step (s)    Subcycles (-)
  -----------------  ---------------  -------------
  FAST (glue code)    6.250E-03
  InflowWind          6.250E-03              1
  ElastoDyn           6.250E-03              1
  AeroDyn             6.250E-03              1
  ServoDyn            6.250E-03              1
  FAST output files   6.250E-03              1


   Requested Channels in FAST Output File(s)  
  --------------------------------------------
  Number  Name        Units       Generated by
  ------  ----------  ----------  ------------
       1  Time        (s)         OpenFAST
       2  Wind1VelX   (m/s)       InflowWind
       3  Wind1VelY   (m/s)       InflowWind
       4  Wind1VelZ   (m/s)       InflowWind
       5  Azimuth     (deg)       ElastoDyn
       6  BldPitch1   (deg)       ElastoDyn
       7  BldPitch2   (deg)       ElastoDyn
       8  BldPitch3   (deg)       ElastoDyn
       9  GenSpeed    (rpm)       ElastoDyn
      10  LSSGagMya   (kN-m)      ElastoDyn
      11  LSSGagMza   (kN-m)      ElastoDyn
      12  LSSTipMys   (kN-m)      ElastoDyn
      13  LSSTipMzs   (kN-m)      ElastoDyn
      14  LSShftFys   (kN)        ElastoDyn
      15  LSShftFzs   (kN)        ElastoDyn
      16  LSShftPwr   (kW)        ElastoDyn
      17  LSShftTq    (kN-m)      ElastoDyn
      18  NacYaw      (deg)       ElastoDyn
      19  RootFxb1    (kN)        ElastoDyn
      20  RootFxb2    (kN)        ElastoDyn
      21  RootFxb3    (kN)        ElastoDyn
      22  RootFxc1    (kN)        ElastoDyn
      23  RootFxc2    (kN)        ElastoDyn
      24  RootFxc3    (kN)        ElastoDyn
      25  RootFyb1    (kN)        ElastoDyn
      26  RootFyb2    (kN)        ElastoDyn
      27  RootFyb3    (kN)        ElastoDyn
      28  RootFyc1    (kN)        ElastoDyn
      29  RootFyc2    (kN)        ElastoDyn
      30  RootFyc3    (kN)        ElastoDyn
      31  RootFzb1    (kN)        ElastoDyn
      32  RootFzb2    (kN)        ElastoDyn
      33  RootFzb3    (kN)        ElastoDyn
      34  RootFzc1    (kN)        ElastoDyn
      35  RootFzc2    (kN)        ElastoDyn
      36  RootFzc3    (kN)        ElastoDyn
      37  RootMxb1    (kN-m)      ElastoDyn
      38  RootMxb2    (kN-m)      ElastoDyn
      39  RootMxb3    (kN-m)      ElastoDyn
      40  RootMxc1    (kN-m)      ElastoDyn
      41  RootMxc2    (kN-m)      ElastoDyn
      42  RootMxc3    (kN-m)      ElastoDyn
      43  RootMyb1    (kN-m)      ElastoDyn
      44  RootMyb2    (kN-m)      ElastoDyn
      45  RootMyb3    (kN-m)      ElastoDyn
      46  RootMyc1    (kN-m)      ElastoDyn
      47  RootMyc2    (kN-m)      ElastoDyn
      48  RootMyc3    (kN-m)      ElastoDyn
      49  RootMzb1    (kN-m)      ElastoDyn
      50  RootMzb2    (kN-m)      ElastoDyn
      51  RootMzb3    (kN-m)      ElastoDyn
      52  RootMzc1    (kN-m)      ElastoDyn
      53  RootMzc2    (kN-m)      ElastoDyn
      54  RootMzc3    (kN-m)      ElastoDyn
      55  RotPwr      (kW)        ElastoDyn
      56  RotSpeed    (rpm)       ElastoDyn
      57  RotThrust   (kN)        ElastoDyn
      58  RotTorq     (kN-m)      ElastoDyn
      59  Spn1MLxb1   (kN-m)      ElastoDyn
      60  Spn1MLyb1   (kN-m)      ElastoDyn
      61  Spn2MLxb1   (kN-m)      ElastoDyn
      62  Spn2MLyb1   (kN-m)      ElastoDyn
      63  Spn2MLzb1   (kN-m)      ElastoDyn
      64  Spn3MLxb1   (kN-m)      ElastoDyn
      65  Spn3MLyb1   (kN-m)      ElastoDyn
      66  Spn4MLxb1   INVALID     ElastoDyn
      67  Spn4MLyb1   INVALID     ElastoDyn
      68  Spn5MLxb1   INVALID     ElastoDyn
      69  Spn5MLyb1   INVALID     ElastoDyn
      70  Spn6MLxb1   INVALID     ElastoDyn
      71  Spn6MLyb1   INVALID     ElastoDyn
      72  Spn7MLxb1   INVALID     ElastoDyn
      73  Spn7MLyb1   INVALID     ElastoDyn
      74  Spn8MLxb1   INVALID     ElastoDyn
      75  Spn8MLyb1   INVALID     ElastoDyn
      76  Spn9MLxb1   INVALID     ElastoDyn
      77  Spn9MLyb1   INVALID     ElastoDyn
      78  TTDspFA     (m)         ElastoDyn
      79  TTDspSS     (m)         ElastoDyn
      80  TTDspTwst   (deg)       ElastoDyn
      81  TipDxc1     (m)         ElastoDyn
      82  TipDxc2     (m)         ElastoDyn
      83  TipDxc3     (m)         ElastoDyn
      84  TipDyc1     (m)         ElastoDyn
      85  TipDyc2     (m)         ElastoDyn
      86  TipDyc3     (m)         ElastoDyn
      87  TipDzc1     (m)         ElastoDyn
      88  TipDzc2     (m)         ElastoDyn
      89  TipDzc3     (m)         ElastoDyn
      90  TipRDyb1    (deg)       ElastoDyn
      91  TipRDyb2    (deg)       ElastoDyn
      92  TipRDyb3    (deg)       ElastoDyn
      93  TwrBsFxt    (kN)        ElastoDyn
      94  TwrBsFyt    (kN)        ElastoDyn
      95  TwrBsFzt    (kN)        ElastoDyn
      96  TwrBsMxt    (kN-m)      ElastoDyn
      97  TwrBsMyt    (kN-m)      ElastoDyn
      98  TwrBsMzt    (kN-m)      ElastoDyn
      99  YawBrFxp    (kN)        ElastoDyn
     100  YawBrFyp    (kN)        ElastoDyn
     101  YawBrFzp    (kN)        ElastoDyn
     102  YawBrMxp    (kN-m)      ElastoDyn
     103  YawBrMyp    (kN-m)      ElastoDyn
     104  YawBrMzp    (kN-m)      ElastoDyn
     105  B1N1Alpha   (deg)       AeroDyn
     106  B1N1AxInd   (-)         AeroDyn
     107  B1N1Cd      (-)         AeroDyn
     108  B1N1Cl      (-)         AeroDyn
     109  B1N1Fd      (N/m)       AeroDyn
     110  B1N1Fl      (N/m)       AeroDyn
     111  B1N1Fx      (N/m)       AeroDyn
     112  B1N1Fy      (N/m)       AeroDyn
     113  B1N1TnInd   (-)         AeroDyn
     114  B1N1Vindx   (m/s)       AeroDyn
     115  B1N1Vindy   (m/s)       AeroDyn
     116  B1N2Alpha   (deg)       AeroDyn
     117  B1N2Cd      (-)         AeroDyn
     118  B1N2Cl      (-)         AeroDyn
     119  B1N2Fd      (N/m)       AeroDyn
     120  B1N2Fl      (N/m)       AeroDyn
     121  B1N2Fx      (N/m)       AeroDyn
     122  B1N2Fy      (N/m)       AeroDyn
     123  B1N3Alpha   (deg)       AeroDyn
     124  B1N3Cd      (-)         AeroDyn
     125  B1N3Cl      (-)         AeroDyn
     126  B1N3Fd      (N/m)       AeroDyn
     127  B1N3Fl      (N/m)       AeroDyn
     128  B1N3Fx      (N/m)       AeroDyn
     129  B1N3Fy      (N/m)       AeroDyn
     130  B1N4Alpha   (deg)       AeroDyn
     131  B1N4Cd      (-)         AeroDyn
     132  B1N4Cl      (-)         AeroDyn
     133  B1N4Fd      (N/m)       AeroDyn
     134  B1N4Fl      (N/m)       AeroDyn
     135  B1N4Fx      (N/m)       AeroDyn
     136  B1N4Fy      (N/m)       AeroDyn
     137  B1N5Alpha   (deg)       AeroDyn
     138  B1N5Cd      (-)         AeroDyn
     139  B1N5Cl      (-)         AeroDyn
     140  B1N5Fd      (N/m)       AeroDyn
     141  B1N5Fl      (N/m)       AeroDyn
     142  B1N5Fx      (N/m)       AeroDyn
     143  B1N5Fy      (N/m)       AeroDyn
     144  B1N6Alpha   (deg)       AeroDyn
     145  B1N6Cd      (-)         AeroDyn
     146  B1N6Cl      (-)         AeroDyn
     147  B1N6Fd      (N/m)       AeroDyn
     148  B1N6Fl      (N/m)       AeroDyn
     149  B1N6Fx      (N/m)       AeroDyn
     150  B1N6Fy      (N/m)       AeroDyn
     151  B1N7Alpha   (deg)       AeroDyn
     152  B1N7Cd      (-)         AeroDyn
     153  B1N7Cl      (-)         AeroDyn
     154  B1N7Fd      (N/m)       AeroDyn
     155  B1N7Fl      (N/m)       AeroDyn
     156  B1N7Fx      (N/m)       AeroDyn
     157  B1N7Fy      (N/m)       AeroDyn
     158  B1N8Alpha   (deg)       AeroDyn
     159  B1N8Cd      (-)         AeroDyn
     160  B1N8Cl      (-)         AeroDyn
     161  B1N8Fd      (N/m)       AeroDyn
     162  B1N8Fl      (N/m)       AeroDyn
     163  B1N8Fx      (N/m)       AeroDyn
     164  B1N8Fy      (N/m)       AeroDyn
     165  B1N9Alpha   (deg)       AeroDyn
     166  B1N9Cd      (-)         AeroDyn
     167  B1N9Cl      (-)         AeroDyn
     168  B1N9Fd      (N/m)       AeroDyn
     169  B1N9Fl      (N/m)       AeroDyn
     170  B1N9Fx      (N/m)       AeroDyn
     171  B1N9Fy      (N/m)       AeroDyn
     172  B2N1Fx      (N/m)       AeroDyn
     173  B2N1Fy      (N/m)       AeroDyn
     174  B2N2Fx      (N/m)       AeroDyn
     175  B2N2Fy      (N/m)       AeroDyn
     176  B2N3Fx      (N/m)       AeroDyn
     177  B2N3Fy      (N/m)       AeroDyn
     178  B2N4Fx      (N/m)       AeroDyn
     179  B2N4Fy      (N/m)       AeroDyn
     180  B2N5Fx      (N/m)       AeroDyn
     181  B2N5Fy      (N/m)       AeroDyn
     182  B2N6Fx      (N/m)       AeroDyn
     183  B2N6Fy      (N/m)       AeroDyn
     184  B2N7Fx      (N/m)       AeroDyn
     185  B2N7Fy      (N/m)       AeroDyn
     186  B2N8Fx      (N/m)       AeroDyn
     187  B2N8Fy      (N/m)       AeroDyn
     188  B2N9Fx      (N/m)       AeroDyn
     189  B2N9Fy      (N/m)       AeroDyn
     190  B3N1Fx      (N/m)       AeroDyn
     191  B3N1Fy      (N/m)       AeroDyn
     192  B3N2Fx      (N/m)       AeroDyn
     193  B3N2Fy      (N/m)       AeroDyn
     194  B3N3Fx      (N/m)       AeroDyn
     195  B3N3Fy      (N/m)       AeroDyn
     196  B3N4Fx      (N/m)       AeroDyn
     197  B3N4Fy      (N/m)       AeroDyn
     198  B3N5Fx      (N/m)       AeroDyn
     199  B3N5Fy      (N/m)       AeroDyn
     200  B3N6Fx      (N/m)       AeroDyn
     201  B3N6Fy      (N/m)       AeroDyn
     202  B3N7Fx      (N/m)       AeroDyn
     203  B3N7Fy      (N/m)       AeroDyn
     204  B3N8Fx      (N/m)       AeroDyn
     205  B3N8Fy      (N/m)       AeroDyn
     206  B3N9Fx      (N/m)       AeroDyn
     207  B3N9Fy      (N/m)       AeroDyn
     208  RtAeroCp    (-)         AeroDyn
     209  RtAeroCt    (-)         AeroDyn
     210  RtAeroFxh   (N)         AeroDyn
     211  RtAeroFyh   (N)         AeroDyn
     212  RtAeroFzh   (N)         AeroDyn
     213  RtArea      (m^2)       AeroDyn
     214  RtSpeed     (rpm)       AeroDyn
     215  RtTSR       (-)         AeroDyn
     216  RtVAvgxh    (m/s)       AeroDyn
     217  RtVAvgyh    (m/s)       AeroDyn
     218  RtVAvgzh    (m/s)       AeroDyn
     219  BLFLAP1     (-)         ServoDyn
     220  BLFLAP2     (-)         ServoDyn
     221  BLFLAP3     (-)         ServoDyn
     222  GenPwr      (kW)        ServoDyn
     223  GenTq       (kN-m)      ServoDyn
